32
Step 0
Ar      -4.140  -4.133  -4.140
Ar      -1.510  -1.532  -4.140
Ar      -1.510  -4.133  -1.510
Ar      -4.140  -1.502  -1.510
Ar      -4.140  -4.133  1.510
Ar      -1.510  -1.532  1.510
Ar      -1.510  -4.133  4.140
Ar      -4.140  -1.502  4.140
Ar      -4.140  1.518   -4.140
Ar      -1.510  4.118   -4.140
Ar      -1.510  1.518   -1.510
Ar      -4.140  4.147   -1.510
Ar      -4.140  1.518   1.510
Ar      -1.510  4.118   1.510
Ar      -1.510  1.518   4.140
Ar      -4.140  4.147   4.140
Ar      1.510   -4.133  -4.140
Ar      4.140   -1.532  -4.140
Ar      4.140   -4.133  -1.510
Ar      1.510   -1.502  -1.510
Ar      1.510   -4.133  1.510
Ar      4.140   -1.532  1.510
Ar      4.140   -4.133  4.140
Ar      1.510   -1.502  4.140
Ar      1.510   1.518   -4.140
Ar      4.140   4.118   -4.140
Ar      4.140   1.518   -1.510
Ar      1.510   4.147   -1.510
Ar      1.510   1.518   1.510
Ar      4.140   4.118   1.510
Ar      4.140   1.518   4.140
Ar      1.510   4.147   4.140

